
6144 atoms
3 atom types
   0.0000000000   40.6138610840 xlo xhi
   0.0000000000   42.1285858152 ylo yhi
   0.0000000000   40.3695526123 zlo zhi
   0.0001514635    0.0000000000    0.0000000000 xy xz yz

Atoms # atomic

     1      1    7.6266288812    7.5511412448    5.0388307509
     2      1    7.6266288812    7.5511412448   15.1312189040
     3      1    7.6266288812    7.5511412448   25.2236080259
     4      1    7.6266288812    7.5511412448   35.3159942816
     5      1    7.6266665440   18.0832882041    5.0388307509
     6      1    7.6266665440   18.0832882041   15.1312189040
     7      1    7.6266665440   18.0832882041   25.2236080259
     8      1    7.6266665440   18.0832882041   35.3159942816
     9      1    7.6267046942   28.6154346579    5.0388307509
    10      1    7.6267046942   28.6154346579   15.1312189040
    11      1    7.6267046942   28.6154346579   25.2236080259
    12      1    7.6267046942   28.6154346579   35.3159942816
    13      1    7.6267423570   39.1475830075    5.0388307509
    14      1    7.6267423570   39.1475830075   15.1312189040
    15      1    7.6267423570   39.1475830075   25.2236080259
    16      1    7.6267423570   39.1475830075   35.3159942816
    17      1   17.7800941522    7.5511412448    5.0388307509
    18      1   17.7800941522    7.5511412448   15.1312189040
    19      1   17.7800941522    7.5511412448   25.2236080259
    20      1   17.7800941522    7.5511412448   35.3159942816
    21      1   17.7801323024   18.0832882041    5.0388307509
    22      1   17.7801323024   18.0832882041   15.1312189040
    23      1   17.7801323024   18.0832882041   25.2236080259
    24      1   17.7801323024   18.0832882041   35.3159942816
    25      1   17.7801704525   28.6154346579    5.0388307509
    26      1   17.7801704525   28.6154346579   15.1312189040
    27      1   17.7801704525   28.6154346579   25.2236080259
    28      1   17.7801704525   28.6154346579   35.3159942816
    29      1   17.7802086027   39.1475830075    5.0388307509
    30      1   17.7802086027   39.1475830075   15.1312189040
    31      1   17.7802086027   39.1475830075   25.2236080259
    32      1   17.7802086027   39.1475830075   35.3159942816
    33      1   27.9335594232    7.5511412448    5.0388307509
    34      1   27.9335594232    7.5511412448   15.1312189040
    35      1   27.9335594232    7.5511412448   25.2236080259
    36      1   27.9335594232    7.5511412448   35.3159942816
    37      1   27.9335975734   18.0832882041    5.0388307509
    38      1   27.9335975734   18.0832882041   15.1312189040
    39      1   27.9335975734   18.0832882041   25.2236080259
    40      1   27.9335975734   18.0832882041   35.3159942816
    41      1   27.9336357235   28.6154346579    5.0388307509
    42      1   27.9336357235   28.6154346579   15.1312189040
    43      1   27.9336357235   28.6154346579   25.2236080259
    44      1   27.9336357235   28.6154346579   35.3159942816
    45      1   27.9336738737   39.1475830075    5.0388307509
    46      1   27.9336738737   39.1475830075   15.1312189040
    47      1   27.9336738737   39.1475830075   25.2236080259
    48      1   27.9336738737   39.1475830075   35.3159942816
    49      1   38.0870246942    7.5511412448    5.0388307509
    50      1   38.0870246942    7.5511412448   15.1312189040
    51      1   38.0870246942    7.5511412448   25.2236080259
    52      1   38.0870246942    7.5511412448   35.3159942816
    53      1   38.0870628444   18.0832882041    5.0388307509
    54      1   38.0870628444   18.0832882041   15.1312189040
    55      1   38.0870628444   18.0832882041   25.2236080259
    56      1   38.0870628444   18.0832882041   35.3159942816
    57      1   38.0871009945   28.6154346579    5.0388307509
    58      1   38.0871009945   28.6154346579   15.1312189040
    59      1   38.0871009945   28.6154346579   25.2236080259
    60      1   38.0871009945   28.6154346579   35.3159942816
    61      1   38.0871391447   39.1475830075    5.0388307509
    62      1   38.0871391447   39.1475830075   15.1312189040
    63      1   38.0871391447   39.1475830075   25.2236080259
    64      1   38.0871391447   39.1475830075   35.3159942816
    65      1    7.6266441149   10.1841831243    2.3478884567
    66      1    7.6266441149   10.1841831243   12.4402770942
    67      1    7.6266441149   10.1841831243   22.5326652473
    68      1    7.6266441149   10.1841831243   32.6250534004
    69      1    7.6266818183   20.7163295781    2.3478884567
    70      1    7.6266818183   20.7163295781   12.4402770942
    71      1    7.6266818183   20.7163295781   22.5326652473
    72      1    7.6266818183   20.7163295781   32.6250534004
    73      1    7.6267199684   31.2484760319    2.3478884567
    74      1    7.6267199684   31.2484760319   12.4402770942
    75      1    7.6267199684   31.2484760319   22.5326652473
    76      1    7.6267199684   31.2484760319   32.6250534004
    77      1    7.6267576313   41.7806243815    2.3478884567
    78      1    7.6267576313   41.7806243815   12.4402770942
    79      1    7.6267576313   41.7806243815   22.5326652473
    80      1    7.6267576313   41.7806243815   32.6250534004
    81      1   17.7801093859   10.1841831243    2.3478884567
    82      1   17.7801093859   10.1841831243   12.4402770942
    83      1   17.7801093859   10.1841831243   22.5326652473
    84      1   17.7801093859   10.1841831243   32.6250534004
    85      1   17.7801475360   20.7163295781    2.3478884567
    86      1   17.7801475360   20.7163295781   12.4402770942
    87      1   17.7801475360   20.7163295781   22.5326652473
    88      1   17.7801475360   20.7163295781   32.6250534004
    89      1   17.7801856862   31.2484760319    2.3478884567
    90      1   17.7801856862   31.2484760319   12.4402770942
    91      1   17.7801856862   31.2484760319   22.5326652473
    92      1   17.7801856862   31.2484760319   32.6250534004
    93      1   17.7802238364   41.7806243815    2.3478884567
    94      1   17.7802238364   41.7806243815   12.4402770942
    95      1   17.7802238364   41.7806243815   22.5326652473
    96      1   17.7802238364   41.7806243815   32.6250534004
    97      1   27.9335746569   10.1841831243    2.3478884567
    98      1   27.9335746569   10.1841831243   12.4402770942
    99      1   27.9335746569   10.1841831243   22.5326652473
   100      1   27.9335746569   10.1841831243   32.6250534004
   101      1   27.9336128070   20.7163295781    2.3478884567
   102      1   27.9336128070   20.7163295781   12.4402770942
   103      1   27.9336128070   20.7163295781   22.5326652473
   104      1   27.9336128070   20.7163295781   32.6250534004
   105      1   27.9336509572   31.2484760319    2.3478884567
   106      1   27.9336509572   31.2484760319   12.4402770942
   107      1   27.9336509572   31.2484760319   22.5326652473
   108      1   27.9336509572   31.2484760319   32.6250534004
   109      1   27.9336891074   41.7806243815    2.3478884567
   110      1   27.9336891074   41.7806243815   12.4402770942
   111      1   27.9336891074   41.7806243815   22.5326652473
   112      1   27.9336891074   41.7806243815   32.6250534004
   113      1   38.0870399279   10.1841831243    2.3478884567
   114      1   38.0870399279   10.1841831243   12.4402770942
   115      1   38.0870399279   10.1841831243   22.5326652473
   116      1   38.0870399279   10.1841831243   32.6250534004
   117      1   38.0870780780   20.7163295781    2.3478884567
   118      1   38.0870780780   20.7163295781   12.4402770942
   119      1   38.0870780780   20.7163295781   22.5326652473
   120      1   38.0870780780   20.7163295781   32.6250534004
   121      1   38.0871124105   31.2484760319    2.3478884567
   122      1   38.0871124105   31.2484760319   12.4402770942
   123      1   38.0871124105   31.2484760319   22.5326652473
   124      1   38.0871124105   31.2484760319   32.6250534004
   125      1   38.0871505607   41.7806243815    2.3478884567
   126      1   38.0871505607   41.7806243815   12.4402770942
   127      1   38.0871505607   41.7806243815   22.5326652473
   128      1   38.0871505607   41.7806243815   32.6250534004
   129      1    0.0115326356    5.2655072293   10.0850143313
   130      1    0.0115326356    5.2655072293   20.1774024844
   131      1    0.0115326356    5.2655072293   30.2697925752
   132      1    0.0115326356    5.2655072293   40.3621787906
   133      1    0.0115705015   15.7976531776   10.0850143313
   134      1    0.0115705015   15.7976531776   20.1774024844
   135      1    0.0115705015   15.7976531776   30.2697925752
   136      1    0.0115705015   15.7976531776   40.3621787906
   137      1    0.0116083674   26.3298015693   10.0850143313
   138      1    0.0116083674   26.3298015693   20.1774024844
   139      1    0.0116083674   26.3298015693   30.2697925752
   140      1    0.0116083674   26.3298015693   40.3621787906
   141      1    0.0116462332   36.8619460852   10.0850143313
   142      1    0.0116462332   36.8619460852   20.1774024844
   143      1    0.0116462332   36.8619460852   30.2697925752
   144      1    0.0116462332   36.8619460852   40.3621787906
   145      1   10.1649970943    5.2655072293   10.0850143313
   146      1   10.1649970943    5.2655072293   20.1774024844
   147      1   10.1649970943    5.2655072293   30.2697925752
   148      1   10.1649970943    5.2655072293   40.3621787906
   149      1   10.1650352445   15.7976531776   10.0850143313
   150      1   10.1650352445   15.7976531776   20.1774024844
   151      1   10.1650352445   15.7976531776   30.2697925752
   152      1   10.1650352445   15.7976531776   40.3621787906
   153      1   10.1650724606   26.3298015693   10.0850143313
   154      1   10.1650724606   26.3298015693   20.1774024844
   155      1   10.1650724606   26.3298015693   30.2697925752
   156      1   10.1650724606   26.3298015693   40.3621787906
   157      1   10.1651105701   36.8619460852   10.0850143313
   158      1   10.1651105701   36.8619460852   20.1774024844
   159      1   10.1651105701   36.8619460852   30.2697925752
   160      1   10.1651105701   36.8619460852   40.3621787906
   161      1   20.3184623653    5.2655072293   10.0850143313
   162      1   20.3184623653    5.2655072293   20.1774024844
   163      1   20.3184623653    5.2655072293   30.2697925752
   164      1   20.3184623653    5.2655072293   40.3621787906
   165      1   20.3185005155   15.7976531776   10.0850143313
   166      1   20.3185005155   15.7976531776   20.1774024844
   167      1   20.3185005155   15.7976531776   30.2697925752
   168      1   20.3185005155   15.7976531776   40.3621787906
   169      1   20.3185386657   26.3298015693   10.0850143313
   170      1   20.3185386657   26.3298015693   20.1774024844
   171      1   20.3185386657   26.3298015693   30.2697925752
   172      1   20.3185386657   26.3298015693   40.3621787906
   173      1   20.3185749070   36.8619460852   10.0850143313
   174      1   20.3185749070   36.8619460852   20.1774024844
   175      1   20.3185749070   36.8619460852   30.2697925752
   176      1   20.3185749070   36.8619460852   40.3621787906
   177      1   30.4719276363    5.2655072293   10.0850143313
   178      1   30.4719276363    5.2655072293   20.1774024844
   179      1   30.4719276363    5.2655072293   30.2697925752
   180      1   30.4719276363    5.2655072293   40.3621787906
   181      1   30.4719657865   15.7976531776   10.0850143313
   182      1   30.4719657865   15.7976531776   20.1774024844
   183      1   30.4719657865   15.7976531776   30.2697925752
   184      1   30.4719657865   15.7976531776   40.3621787906
   185      1   30.4720039367   26.3298015693   10.0850143313
   186      1   30.4720039367   26.3298015693   20.1774024844
   187      1   30.4720039367   26.3298015693   30.2697925752
   188      1   30.4720039367   26.3298015693   40.3621787906
   189      1   30.4720401780   36.8619460852   10.0850143313
   190      1   30.4720401780   36.8619460852   20.1774024844
   191      1   30.4720401780   36.8619460852   30.2697925752
   192      1   30.4720401780   36.8619460852   40.3621787906
   193      1    7.6266250601    4.9181094340    2.3478884567
   194      1    7.6266250601    4.9181094340   12.4402770942
   195      1    7.6266250601    4.9181094340   22.5326652473
   196      1    7.6266250601    4.9181094340   32.6250534004
   197      1    7.6266627229   15.4502563512    2.3478884567
   198      1    7.6266627229   15.4502563512   12.4402770942
   199      1    7.6266627229   15.4502563512   22.5326652473
   200      1    7.6266627229   15.4502563512   32.6250534004
   201      1    7.6267008730   25.9824028050    2.3478884567
   202      1    7.6267008730   25.9824028050   12.4402770942
   203      1    7.6267008730   25.9824028050   22.5326652473
   204      1    7.6267008730   25.9824028050   32.6250534004
   205      1    7.6267385359   36.5145492588    2.3478884567
   206      1    7.6267385359   36.5145492588   12.4402770942
   207      1    7.6267385359   36.5145492588   22.5326652473
   208      1    7.6267385359   36.5145492588   32.6250534004
   209      1   17.7800903311    4.9181094340    2.3478884567
   210      1   17.7800903311    4.9181094340   12.4402770942
   211      1   17.7800903311    4.9181094340   22.5326652473
   212      1   17.7800903311    4.9181094340   32.6250534004
   213      1   17.7801284812   15.4502563512    2.3478884567
   214      1   17.7801284812   15.4502563512   12.4402770942
   215      1   17.7801284812   15.4502563512   22.5326652473
   216      1   17.7801284812   15.4502563512   32.6250534004
   217      1   17.7801666314   25.9824028050    2.3478884567
   218      1   17.7801666314   25.9824028050   12.4402770942
   219      1   17.7801666314   25.9824028050   22.5326652473
   220      1   17.7801666314   25.9824028050   32.6250534004
   221      1   17.7802047816   36.5145492588    2.3478884567
   222      1   17.7802047816   36.5145492588   12.4402770942
   223      1   17.7802047816   36.5145492588   22.5326652473
   224      1   17.7802047816   36.5145492588   32.6250534004
   225      1   27.9335556021    4.9181094340    2.3478884567
   226      1   27.9335556021    4.9181094340   12.4402770942
   227      1   27.9335556021    4.9181094340   22.5326652473
   228      1   27.9335556021    4.9181094340   32.6250534004
   229      1   27.9335937522   15.4502563512    2.3478884567
   230      1   27.9335937522   15.4502563512   12.4402770942
   231      1   27.9335937522   15.4502563512   22.5326652473
   232      1   27.9335937522   15.4502563512   32.6250534004
   233      1   27.9336319024   25.9824028050    2.3478884567
   234      1   27.9336319024   25.9824028050   12.4402770942
   235      1   27.9336319024   25.9824028050   22.5326652473
   236      1   27.9336319024   25.9824028050   32.6250534004
   237      1   27.9336700526   36.5145492588    2.3478884567
   238      1   27.9336700526   36.5145492588   12.4402770942
   239      1   27.9336700526   36.5145492588   22.5326652473
   240      1   27.9336700526   36.5145492588   32.6250534004
   241      1   38.0870208731    4.9181094340    2.3478884567
   242      1   38.0870208731    4.9181094340   12.4402770942
   243      1   38.0870208731    4.9181094340   22.5326652473
   244      1   38.0870208731    4.9181094340   32.6250534004
   245      1   38.0870590232   15.4502563512    2.3478884567
   246      1   38.0870590232   15.4502563512   12.4402770942
   247      1   38.0870590232   15.4502563512   22.5326652473
   248      1   38.0870590232   15.4502563512   32.6250534004
   249      1   38.0870933557   25.9824028050    2.3478884567
   250      1   38.0870933557   25.9824028050   12.4402770942
   251      1   38.0870933557   25.9824028050   22.5326652473
   252      1   38.0870933557   25.9824028050   32.6250534004
   253      1   38.0871315059   36.5145492588    2.3478884567
   254      1   38.0871315059   36.5145492588   12.4402770942
   255      1   38.0871315059   36.5145492588   22.5326652473
   256      1   38.0871315059   36.5145492588   32.6250534004
   257      1    7.6266288812    7.5511412448   10.0850248274
   258      1    7.6266288812    7.5511412448   20.1774139494
   259      1    7.6266288812    7.5511412448   30.2698021024
   260      1    7.6266288812    7.5511412448   40.3621902555
   261      1    7.6266665440   18.0832882041   10.0850248274
   262      1    7.6266665440   18.0832882041   20.1774139494
   263      1    7.6266665440   18.0832882041   30.2698021024
   264      1    7.6266665440   18.0832882041   40.3621902555
   265      1    7.6267046942   28.6154346579   10.0850248274
   266      1    7.6267046942   28.6154346579   20.1774139494
   267      1    7.6267046942   28.6154346579   30.2698021024
   268      1    7.6267046942   28.6154346579   40.3621902555
   269      1    7.6267423570   39.1475830075   10.0850248274
   270      1    7.6267423570   39.1475830075   20.1774139494
   271      1    7.6267423570   39.1475830075   30.2698021024
   272      1    7.6267423570   39.1475830075   40.3621902555
   273      1   17.7800941522    7.5511412448   10.0850248274
   274      1   17.7800941522    7.5511412448   20.1774139494
   275      1   17.7800941522    7.5511412448   30.2698021024
   276      1   17.7800941522    7.5511412448   40.3621902555
   277      1   17.7801323024   18.0832882041   10.0850248274
   278      1   17.7801323024   18.0832882041   20.1774139494
   279      1   17.7801323024   18.0832882041   30.2698021024
   280      1   17.7801323024   18.0832882041   40.3621902555
   281      1   17.7801704525   28.6154346579   10.0850248274
   282      1   17.7801704525   28.6154346579   20.1774139494
   283      1   17.7801704525   28.6154346579   30.2698021024
   284      1   17.7801704525   28.6154346579   40.3621902555
   285      1   17.7802086027   39.1475830075   10.0850248274
   286      1   17.7802086027   39.1475830075   20.1774139494
   287      1   17.7802086027   39.1475830075   30.2698021024
   288      1   17.7802086027   39.1475830075   40.3621902555
   289      1   27.9335594232    7.5511412448   10.0850248274
   290      1   27.9335594232    7.5511412448   20.1774139494
   291      1   27.9335594232    7.5511412448   30.2698021024
   292      1   27.9335594232    7.5511412448   40.3621902555
   293      1   27.9335975734   18.0832882041   10.0850248274
   294      1   27.9335975734   18.0832882041   20.1774139494
   295      1   27.9335975734   18.0832882041   30.2698021024
   296      1   27.9335975734   18.0832882041   40.3621902555
   297      1   27.9336357235   28.6154346579   10.0850248274
   298      1   27.9336357235   28.6154346579   20.1774139494
   299      1   27.9336357235   28.6154346579   30.2698021024
   300      1   27.9336357235   28.6154346579   40.3621902555
   301      1   27.9336738737   39.1475830075   10.0850248274
   302      1   27.9336738737   39.1475830075   20.1774139494
   303      1   27.9336738737   39.1475830075   30.2698021024
   304      1   27.9336738737   39.1475830075   40.3621902555
   305      1   38.0870246942    7.5511412448   10.0850248274
   306      1   38.0870246942    7.5511412448   20.1774139494
   307      1   38.0870246942    7.5511412448   30.2698021024
   308      1   38.0870246942    7.5511412448   40.3621902555
   309      1   38.0870628444   18.0832882041   10.0850248274
   310      1   38.0870628444   18.0832882041   20.1774139494
   311      1   38.0870628444   18.0832882041   30.2698021024
   312      1   38.0870628444   18.0832882041   40.3621902555
   313      1   38.0871009945   28.6154346579   10.0850248274
   314      1   38.0871009945   28.6154346579   20.1774139494
   315      1   38.0871009945   28.6154346579   30.2698021024
   316      1   38.0871009945   28.6154346579   40.3621902555
   317      1   38.0871391447   39.1475830075   10.0850248274
   318      1   38.0871391447   39.1475830075   20.1774139494
   319      1   38.0871391447   39.1475830075   30.2698021024
   320      1   38.0871391447   39.1475830075   40.3621902555
   321      1    5.0882840010   10.5315799507    5.0388207392
   322      1    5.0882840010   10.5315799507   15.1312093767
   323      1    5.0882840010   10.5315799507   25.2235984987
   324      1    5.0882840010   10.5315799507   35.3159866518
   325      1    5.0883221511   21.0637264045    5.0388207392
   326      1    5.0883221511   21.0637264045   15.1312093767
   327      1    5.0883221511   21.0637264045   25.2235984987
   328      1    5.0883221511   21.0637264045   35.3159866518
   329      1    5.0883598139   31.5958709625    5.0388207392
   330      1    5.0883598139   31.5958709625   15.1312093767
   331      1    5.0883598139   31.5958709625   25.2235984987
   332      1    5.0883598139   31.5958709625   35.3159866518
   333      1    5.0883979641   42.1280174163    5.0388207392
   334      1    5.0883979641   42.1280174163   15.1312093767
   335      1    5.0883979641   42.1280174163   25.2235984987
   336      1    5.0883979641   42.1280174163   35.3159866518
   337      1   15.2417488252   10.5315799507    5.0388207392
   338      1   15.2417488252   10.5315799507   15.1312093767
   339      1   15.2417488252   10.5315799507   25.2235984987
   340      1   15.2417488252   10.5315799507   35.3159866518
   341      1   15.2417860007   21.0637264045    5.0388207392
   342      1   15.2417860007   21.0637264045   15.1312093767
   343      1   15.2417860007   21.0637264045   25.2235984987
   344      1   15.2417860007   21.0637264045   35.3159866518
   345      1   15.2418241508   31.5958709625    5.0388207392
   346      1   15.2418241508   31.5958709625   15.1312093767
   347      1   15.2418241508   31.5958709625   25.2235984987
   348      1   15.2418241508   31.5958709625   35.3159866518
   349      1   15.2418623010   42.1280174163    5.0388207392
   350      1   15.2418623010   42.1280174163   15.1312093767
   351      1   15.2418623010   42.1280174163   25.2235984987
   352      1   15.2418623010   42.1280174163   35.3159866518
   353      1   25.3952140962   10.5315799507    5.0388207392
   354      1   25.3952140962   10.5315799507   15.1312093767
   355      1   25.3952140962   10.5315799507   25.2235984987
   356      1   25.3952140962   10.5315799507   35.3159866518
   357      1   25.3952522464   21.0637264045    5.0388207392
   358      1   25.3952522464   21.0637264045   15.1312093767
   359      1   25.3952522464   21.0637264045   25.2235984987
   360      1   25.3952522464   21.0637264045   35.3159866518
   361      1   25.3952903559   31.5958709625    5.0388207392
   362      1   25.3952903559   31.5958709625   15.1312093767
   363      1   25.3952903559   31.5958709625   25.2235984987
   364      1   25.3952903559   31.5958709625   35.3159866518
   365      1   25.3953265973   42.1280174163    5.0388207392
   366      1   25.3953265973   42.1280174163   15.1312093767
   367      1   25.3953265973   42.1280174163   25.2235984987
   368      1   25.3953265973   42.1280174163   35.3159866518
   369      1   35.5486793672   10.5315799507    5.0388207392
   370      1   35.5486793672   10.5315799507   15.1312093767
   371      1   35.5486793672   10.5315799507   25.2235984987
   372      1   35.5486793672   10.5315799507   35.3159866518
   373      1   35.5487175174   21.0637264045    5.0388207392
   374      1   35.5487175174   21.0637264045   15.1312093767
   375      1   35.5487175174   21.0637264045   25.2235984987
   376      1   35.5487175174   21.0637264045   35.3159866518
   377      1   35.5487556269   31.5958709625    5.0388207392
   378      1   35.5487556269   31.5958709625   15.1312093767
   379      1   35.5487556269   31.5958709625   25.2235984987
   380      1   35.5487556269   31.5958709625   35.3159866518
   381      1   35.5487937771   42.1280174163    5.0388207392
   382      1   35.5487937771   42.1280174163   15.1312093767
   383      1   35.5487937771   42.1280174163   25.2235984987
   384      1   35.5487937771   42.1280174163   35.3159866518
   385      1    2.5498919372    4.9181094340    7.3940825332
   386      1    2.5498919372    4.9181094340   17.4864711707
   387      1    2.5498919372    4.9181094340   27.5788593238
   388      1    2.5498919372    4.9181094340   37.6712455795
   389      1    2.5499298437   15.4502563512    7.3940825332
   390      1    2.5499298437   15.4502563512   17.4864711707
   391      1    2.5499298437   15.4502563512   27.5788593238
   392      1    2.5499298437   15.4502563512   37.6712455795
   393      1    2.5499677502   25.9824028050    7.3940825332
   394      1    2.5499677502   25.9824028050   17.4864711707
   395      1    2.5499677502   25.9824028050   27.5788593238
   396      1    2.5499677502   25.9824028050   37.6712455795
   397      1    2.5500056567   36.5145492588    7.3940825332
   398      1    2.5500056567   36.5145492588   17.4864711707
   399      1    2.5500056567   36.5145492588   27.5788593238
   400      1    2.5500056567   36.5145492588   37.6712455795
   401      1   12.7033576956    4.9181094340    7.3940825332
   402      1   12.7033576956    4.9181094340   17.4864711707
   403      1   12.7033576956    4.9181094340   27.5788593238
   404      1   12.7033576956    4.9181094340   37.6712455795
   405      1   12.7033948710   15.4502563512    7.3940825332
   406      1   12.7033948710   15.4502563512   17.4864711707
   407      1   12.7033948710   15.4502563512   27.5788593238
   408      1   12.7033948710   15.4502563512   37.6712455795
   409      1   12.7034330212   25.9824028050    7.3940825332
   410      1   12.7034330212   25.9824028050   17.4864711707
   411      1   12.7034330212   25.9824028050   27.5788593238
   412      1   12.7034330212   25.9824028050   37.6712455795
   413      1   12.7034711714   36.5145492588    7.3940825332
   414      1   12.7034711714   36.5145492588   17.4864711707
   415      1   12.7034711714   36.5145492588   27.5788593238
   416      1   12.7034711714   36.5145492588   37.6712455795
   417      1   22.8568229666    4.9181094340    7.3940825332
   418      1   22.8568229666    4.9181094340   17.4864711707
   419      1   22.8568229666    4.9181094340   27.5788593238
   420      1   22.8568229666    4.9181094340   37.6712455795
   421      1   22.8568611167   15.4502563512    7.3940825332
   422      1   22.8568611167   15.4502563512   17.4864711707
   423      1   22.8568611167   15.4502563512   27.5788593238
   424      1   22.8568611167   15.4502563512   37.6712455795
   425      1   22.8568992669   25.9824028050    7.3940825332
   426      1   22.8568992669   25.9824028050   17.4864711707
   427      1   22.8568992669   25.9824028050   27.5788593238
   428      1   22.8568992669   25.9824028050   37.6712455795
   429      1   22.8569374171   36.5145492588    7.3940825332
   430      1   22.8569374171   36.5145492588   17.4864711707
   431      1   22.8569374171   36.5145492588   27.5788593238
   432      1   22.8569374171   36.5145492588   37.6712455795
   433      1   33.0102882376    4.9181094340    7.3940825332
   434      1   33.0102882376    4.9181094340   17.4864711707
   435      1   33.0102882376    4.9181094340   27.5788593238
   436      1   33.0102882376    4.9181094340   37.6712455795
   437      1   33.0103263877   15.4502563512    7.3940825332
   438      1   33.0103263877   15.4502563512   17.4864711707
   439      1   33.0103263877   15.4502563512   27.5788593238
   440      1   33.0103263877   15.4502563512   37.6712455795
   441      1   33.0103607202   25.9824028050    7.3940825332
   442      1   33.0103607202   25.9824028050   17.4864711707
   443      1   33.0103607202   25.9824028050   27.5788593238
   444      1   33.0103607202   25.9824028050   37.6712455795
   445      1   33.0103988704   36.5145492588    7.3940825332
   446      1   33.0103988704   36.5145492588   17.4864711707
   447      1   33.0103988704   36.5145492588   27.5788593238
   448      1   33.0103988704   36.5145492588   37.6712455795
   449      1    0.0115326356    5.2655072293    5.0388207392
   450      1    0.0115326356    5.2655072293   15.1312093767
   451      1    0.0115326356    5.2655072293   25.2235984987
   452      1    0.0115326356    5.2655072293   35.3159866518
   453      1    0.0115705015   15.7976531776    5.0388207392
   454      1    0.0115705015   15.7976531776   15.1312093767
   455      1    0.0115705015   15.7976531776   25.2235984987
   456      1    0.0115705015   15.7976531776   35.3159866518
   457      1    0.0116083674   26.3298015693    5.0388207392
   458      1    0.0116083674   26.3298015693   15.1312093767
   459      1    0.0116083674   26.3298015693   25.2235984987
   460      1    0.0116083674   26.3298015693   35.3159866518
   461      1    0.0116462332   36.8619460852    5.0388207392
   462      1    0.0116462332   36.8619460852   15.1312093767
   463      1    0.0116462332   36.8619460852   25.2235984987
   464      1    0.0116462332   36.8619460852   35.3159866518
   465      1   10.1649970943    5.2655072293    5.0388207392
   466      1   10.1649970943    5.2655072293   15.1312093767
   467      1   10.1649970943    5.2655072293   25.2235984987
   468      1   10.1649970943    5.2655072293   35.3159866518
   469      1   10.1650352445   15.7976531776    5.0388207392
   470      1   10.1650352445   15.7976531776   15.1312093767
   471      1   10.1650352445   15.7976531776   25.2235984987
   472      1   10.1650352445   15.7976531776   35.3159866518
   473      1   10.1650724606   26.3298015693    5.0388207392
   474      1   10.1650724606   26.3298015693   15.1312093767
   475      1   10.1650724606   26.3298015693   25.2235984987
   476      1   10.1650724606   26.3298015693   35.3159866518
   477      1   10.1651105701   36.8619460852    5.0388207392
   478      1   10.1651105701   36.8619460852   15.1312093767
   479      1   10.1651105701   36.8619460852   25.2235984987
   480      1   10.1651105701   36.8619460852   35.3159866518